file 4438 1698396880                                            
version 2
run CONF_TEST-0-20231027-11:54:35-19896
attr configname CONF_TEST
attr datetime 20231027-11:54:35
attr datetimef 20231027-115435
attr experiment CONF_TEST
attr inifile omnetpp.ini
attr iterationvars ""
attr iterationvarsd ""
attr iterationvarsf ""
attr measurement ""
attr network topology
attr processid 19896
attr repetition 0
attr replication #0
attr resultdir results
attr runnumber 0
attr seedset 0
config image-path ../inet4.5/images
config description TEST
config network topology
config sim-time-limit 20s
config *.host*.ipv4.arp.typename GlobalArp
config *.hostA.numApps 1
config *.hostA.app[0].typename UdpBasicApp
config *.hostA.app[0].destAddresses "\"hostB\""
config *.hostA.app[0].destPort 5000
config *.hostA.app[0].messageLength 1000B
config *.hostA.app[0].sendInterval exponential(12ms)
config *.hostA.app[0].packetName "\"UDPData\""
config *.host*.wlan[0].radio.receiver.ignoreInterference false
config **.host*.mobilityType "\"inet.mobility.NullMobility\""
config **.host[0..99].mobility.x -1
config **.host[0..99].mobility.y -1
config *.hostB.numApps 1
config *.hostB.app[0].typename UdpSink
config *.hostB.app[0].localPort 5000
config *.host*.wlan[0].typename AckingWirelessInterface
config *.host*.wlan[0].mac.useAck false
config *.host*.wlan[0].mac.fullDuplex false
config *.host*.wlan[0].radio.transmitter.communicationRange 500m
config *.host*.wlan[0].radio.receiver.ignoreInterference true
config *.host*.wlan[0].mac.headerLength 23B
config *.host*.wlan[0].mac.typename LMac
config *.host*.wlan[0].queue.typename DropTailQueue
config *.host*.wlan[0].queue.packetCapacity -1
config **.host[0..119].udpAppType "\"UDPBasicBurst\""
config **.host[0..119].numUdpApps 1
config **.host[0..119].udpApp[0].localPort 1234
config **.host[0..119].udpApp[0].destPort 1234
config **.host[0..99].udpApp[0].destAddresses "\"random_name(host)\""
config *.host*.**.bitrate 1Mbps
config *.visualizer.mediumVisualizer.displaySignals true
config *.visualizer.physicalLinkVisualizer.displayLinks true
config *.visualizer.physicalLinkVisualizer.packetFilter "\"\""
config *.visualizer.networkRouteVisualizer.displayRoutes true

vector 0 topology.hostA.udp passedUpPk:vector(count) ETV
attr interpolationmode none
attr recordingmode vector(count)
attr source packetSentToUpper
attr title "packets passed up, count"
0	4310 9 0 0 0 0 1 0 0 0 0
vector 1 topology.hostA.udp droppedPkWrongPort:vector(count) ETV
attr interpolationmode none
attr recordingmode vector(count)
attr source packetDropReasonIsNoPortFound(packetDropped)
attr title "packets dropped (wrong port), count"
1	4319 9 0 0 0 0 1 0 0 0 0
vector 2 topology.hostA.udp droppedPkBadChecksum:vector(count) ETV
attr interpolationmode none
attr recordingmode vector(count)
attr source packetDropReasonIsIncorrectlyReceived(packetDropped)
attr title "packets dropped (checksum error), count"
2	4328 9 0 0 0 0 1 0 0 0 0
vector 3 topology.hostB.udp passedUpPk:vector(count) ETV
attr interpolationmode none
attr recordingmode vector(count)
attr source packetSentToUpper
attr title "packets passed up, count"
3	4337 9 0 0 0 0 1 0 0 0 0
vector 4 topology.hostB.udp droppedPkWrongPort:vector(count) ETV
attr interpolationmode none
attr recordingmode vector(count)
attr source packetDropReasonIsNoPortFound(packetDropped)
attr title "packets dropped (wrong port), count"
4	4346 9 0 0 0 0 1 0 0 0 0
vector 5 topology.hostB.udp droppedPkBadChecksum:vector(count) ETV
attr interpolationmode none
attr recordingmode vector(count)
attr source packetDropReasonIsIncorrectlyReceived(packetDropped)
attr title "packets dropped (checksum error), count"
5	4355 9 0 0 0 0 1 0 0 0 0
vector 6 topology.hostA.wlan[0].radio radioMode:vector ETV
attr interpolationmode sample-hold
attr recordingmode vector
attr source radioModeChanged
attr title "Radio mode"
6	4364 27 0 0 0 0 3 0 2 2 4
vector 7 topology.hostB.wlan[0].radio radioMode:vector ETV
attr interpolationmode sample-hold
attr recordingmode vector
attr source radioModeChanged
attr title "Radio mode"
7	4391 27 0 0 0 0 3 0 2 2 4
vector 8 topology.hostA.wlan[0].radio receptionState:vector ETV
attr interpolationmode sample-hold
attr recordingmode vector
attr source receptionStateChanged
attr title "Radio reception state"
8	4418 9 0 0 0 0 1 1 1 1 1
vector 9 topology.hostB.wlan[0].radio receptionState:vector ETV
attr interpolationmode sample-hold
attr recordingmode vector
attr source receptionStateChanged
attr title "Radio reception state"
9	4427 11 0 0 0 0 1 1 1 1 1
